
Host: holiday

Timers On : Mon May 18 15:15:12 2020
Timers Off: Mon May 18 15:15:13 2020

Wall Time:        1.00 seconds


***********************************************************
