
Host: holiday

Timers On : Mon May 18 15:15:12 2020
Timers Off: Mon May 18 15:15:13 2020

Wall Time:        1.00 seconds


***********************************************************

Host: Nicoles-MacBook-Pro.local

Timers On : Mon May 18 16:12:14 2020
Timers Off: Mon May 18 16:12:33 2020

Wall Time:       19.09 seconds

                                                       Time (seconds)
Module                                       User      System        Wall        Calls

--------------------------------------------------------------------------------------

**************************************************************************************

Host: Nicoles-MacBook-Pro.local

Timers On : Mon May 18 16:15:31 2020
Timers Off: Mon May 18 16:15:51 2020

Wall Time:       19.50 seconds

                                                       Time (seconds)
Module                                       User      System        Wall        Calls

--------------------------------------------------------------------------------------

**************************************************************************************

Host: Nicoles-MacBook-Pro.local

Timers On : Mon May 18 16:23:09 2020
Timers Off: Mon May 18 16:23:28 2020

Wall Time:       18.87 seconds

                                                       Time (seconds)
Module                                       User      System        Wall        Calls

--------------------------------------------------------------------------------------

**************************************************************************************

Host: Nicoles-MacBook-Pro.local

Timers On : Mon May 18 16:26:29 2020
Timers Off: Mon May 18 16:26:49 2020

Wall Time:       19.70 seconds

                                                       Time (seconds)
Module                                       User      System        Wall        Calls

--------------------------------------------------------------------------------------

**************************************************************************************

Host: Nicoles-MacBook-Pro.local

Timers On : Mon May 18 16:30:11 2020
Timers Off: Mon May 18 16:30:30 2020

Wall Time:       18.88 seconds

                                                       Time (seconds)
Module                                       User      System        Wall        Calls

--------------------------------------------------------------------------------------

**************************************************************************************

Host: Nicoles-MacBook-Pro.local

Timers On : Mon May 18 16:33:29 2020
Timers Off: Mon May 18 16:33:48 2020

Wall Time:       18.97 seconds

                                                       Time (seconds)
Module                                       User      System        Wall        Calls

--------------------------------------------------------------------------------------

**************************************************************************************
