
Host: Nicoles-MacBook-Pro.local

Timers On : Mon May 18 15:36:58 2020
Timers Off: Mon May 18 15:36:59 2020

Wall Time:        0.40 seconds

                                                       Time (seconds)
Module                                       User      System        Wall        Calls

--------------------------------------------------------------------------------------

**************************************************************************************

Host: Nicoles-MacBook-Pro.local

Timers On : Mon May 18 15:37:20 2020
Timers Off: Mon May 18 15:37:21 2020

Wall Time:        0.39 seconds

                                                       Time (seconds)
Module                                       User      System        Wall        Calls

--------------------------------------------------------------------------------------

**************************************************************************************

Host: Nicoles-MacBook-Pro.local

Timers On : Mon May 18 15:38:10 2020
Timers Off: Mon May 18 15:38:10 2020

Wall Time:        0.41 seconds

                                                       Time (seconds)
Module                                       User      System        Wall        Calls

--------------------------------------------------------------------------------------

**************************************************************************************

Host: Nicoles-MacBook-Pro.local

Timers On : Mon May 18 15:39:11 2020
Timers Off: Mon May 18 15:39:11 2020

Wall Time:        0.34 seconds

                                                       Time (seconds)
Module                                       User      System        Wall        Calls

--------------------------------------------------------------------------------------

**************************************************************************************

Host: Nicoles-MacBook-Pro.local

Timers On : Mon May 18 15:51:53 2020
Timers Off: Mon May 18 15:51:53 2020

Wall Time:        0.35 seconds

                                                       Time (seconds)
Module                                       User      System        Wall        Calls

--------------------------------------------------------------------------------------

**************************************************************************************

Host: Nicoles-MacBook-Pro.local

Timers On : Mon May 18 15:52:28 2020
Timers Off: Mon May 18 15:52:29 2020

Wall Time:        0.35 seconds

                                                       Time (seconds)
Module                                       User      System        Wall        Calls

--------------------------------------------------------------------------------------

**************************************************************************************

Host: Nicoles-MacBook-Pro.local

Timers On : Mon May 18 15:54:50 2020
Timers Off: Mon May 18 15:54:50 2020

Wall Time:        0.35 seconds

                                                       Time (seconds)
Module                                       User      System        Wall        Calls

--------------------------------------------------------------------------------------

**************************************************************************************

Host: Nicoles-MacBook-Pro.local

Timers On : Mon May 18 15:56:17 2020
Timers Off: Mon May 18 15:56:17 2020

Wall Time:        0.35 seconds

                                                       Time (seconds)
Module                                       User      System        Wall        Calls

--------------------------------------------------------------------------------------

**************************************************************************************

Host: Nicoles-MacBook-Pro.local

Timers On : Mon May 18 16:25:56 2020
Timers Off: Mon May 18 16:25:59 2020

Wall Time:        3.02 seconds

                                                       Time (seconds)
Module                                       User      System        Wall        Calls

--------------------------------------------------------------------------------------

**************************************************************************************

Host: Nicoles-MacBook-Pro.local

Timers On : Mon May 18 16:35:12 2020
Timers Off: Mon May 18 16:35:15 2020

Wall Time:        2.51 seconds

                                                       Time (seconds)
Module                                       User      System        Wall        Calls

--------------------------------------------------------------------------------------

**************************************************************************************
